Program Version,EnergyPlus, Version 23.1.0-87ed9199d4, YMD=2024.04.16 15:11
1,5,Environment Title[],Latitude[deg],Longitude[deg],Time Zone[],Elevation[m]
2,8,Day of Simulation[],Month[],Day of Month[],DST Indicator[1=yes 0=no],Hour[],StartMinute[],EndMinute[],DayType
3,5,Cumulative Day of Simulation[],Month[],Day of Month[],DST Indicator[1=yes 0=no],DayType  ! When Daily Meters Requested
4,2,Cumulative Days of Simulation[],Month[]  ! When Monthly Meters Requested
5,1,Cumulative Days of Simulation[] ! When Run Period Meters Requested
6,1,Calendar Year of Simulation[] ! When Annual Meters Requested
722,1,DistrictCooling:HVAC [J] !Hourly
673,1,DistrictHeating:HVAC [J] !Hourly
End of Data Dictionary
1,ARCHSIM,  39.80, 116.47,   8.00,  31.30
2,1, 1, 1, 0, 1, 0.00,60.00,Sunday
673,1443478.3847280259
722,1407103.632102807
2,1, 1, 1, 0, 2, 0.00,60.00,Sunday
673,1589715.3042626614
722,1080499.0094557488
2,1, 1, 1, 0, 3, 0.00,60.00,Sunday
673,1674327.844063459
722,972152.3936685552
2,1, 1, 1, 0, 4, 0.00,60.00,Sunday
673,1729772.9847091464
722,975206.1811881933
2,1, 1, 1, 0, 5, 0.00,60.00,Sunday
673,1750690.3856429933
722,946149.5818564908
2,1, 1, 1, 0, 6, 0.00,60.00,Sunday
673,1789827.1195271746
722,876023.8937263631
2,1, 1, 1, 0, 7, 0.00,60.00,Sunday
673,1762489.3490594716
722,858832.9537686498
2,1, 1, 1, 0, 8, 0.00,60.00,Sunday
673,1749974.7911584966
722,847200.626686197
2,1, 1, 1, 0, 9, 0.00,60.00,Sunday
673,2181222.6757041328
722,0.0
2,1, 1, 1, 0,10, 0.00,60.00,Sunday
673,3137880.7970459973
722,0.0
2,1, 1, 1, 0,11, 0.00,60.00,Sunday
673,2486297.365283053
722,0.0
2,1, 1, 1, 0,12, 0.00,60.00,Sunday
673,1650011.8542453004
722,0.0
2,1, 1, 1, 0,13, 0.00,60.00,Sunday
673,1170885.0383413024
722,0.0
2,1, 1, 1, 0,14, 0.00,60.00,Sunday
673,590324.1053774334
722,0.0
2,1, 1, 1, 0,15, 0.00,60.00,Sunday
673,372723.6133576708
722,0.0
2,1, 1, 1, 0,16, 0.00,60.00,Sunday
673,432980.97149406694
722,0.0
2,1, 1, 1, 0,17, 0.00,60.00,Sunday
673,553256.2573637682
722,1985528.7815794358
2,1, 1, 1, 0,18, 0.00,60.00,Sunday
673,619370.9773229868
722,2590237.323646114
2,1, 1, 1, 0,19, 0.00,60.00,Sunday
673,755107.9399275705
722,2424299.0565170506
2,1, 1, 1, 0,20, 0.00,60.00,Sunday
673,866185.4797855492
722,2212584.9419741477
2,1, 1, 1, 0,21, 0.00,60.00,Sunday
673,993262.9560288959
722,2014506.3661462134
2,1, 1, 1, 0,22, 0.00,60.00,Sunday
673,1116620.6691493501
722,1904318.0972480103
2,1, 1, 1, 0,23, 0.00,60.00,Sunday
673,1267032.3111143468
722,1728924.5123102334
2,1, 1, 1, 0,24, 0.00,60.00,Sunday
673,1405806.3891159762
722,1557636.8256384518
2,2, 1, 2, 0, 1, 0.00,60.00,Monday
673,1388544.807087266
722,1527939.4564891376
2,2, 1, 2, 0, 2, 0.00,60.00,Monday
673,1400637.7033448715
722,1488464.1322430884
2,2, 1, 2, 0, 3, 0.00,60.00,Monday
673,1485415.8347887876
722,1412593.3896579074
2,2, 1, 2, 0, 4, 0.00,60.00,Monday
673,1561810.3567722542
722,1362433.0645442079
2,2, 1, 2, 0, 5, 0.00,60.00,Monday
673,1619870.66790899
722,1277992.2897532864
2,2, 1, 2, 0, 6, 0.00,60.00,Monday
673,1684907.2791501635
722,1171745.3875078387
2,2, 1, 2, 0, 7, 0.00,60.00,Monday
673,1709863.108745486
722,1100345.8266798267
2,2, 1, 2, 0, 8, 0.00,60.00,Monday
673,1772524.675372169
722,1018622.2583012026
2,2, 1, 2, 0, 9, 0.00,60.00,Monday
673,1976623.1565643786
722,0.0
2,2, 1, 2, 0,10, 0.00,60.00,Monday
673,3005117.7460576994
722,0.0
2,2, 1, 2, 0,11, 0.00,60.00,Monday
673,2348651.679466929
722,0.0
2,2, 1, 2, 0,12, 0.00,60.00,Monday
673,1655298.9981025942
722,0.0
2,2, 1, 2, 0,13, 0.00,60.00,Monday
673,1112339.1044141056
722,0.0
2,2, 1, 2, 0,14, 0.00,60.00,Monday
673,456387.6816966155
722,0.0
2,2, 1, 2, 0,15, 0.00,60.00,Monday
673,118125.79837661031
722,0.0
2,2, 1, 2, 0,16, 0.00,60.00,Monday
673,114708.30731690714
722,0.0
2,2, 1, 2, 0,17, 0.00,60.00,Monday
673,320561.91564106935
722,2981370.59352594
2,2, 1, 2, 0,18, 0.00,60.00,Monday
673,518665.19529801793
722,3063388.754599111
2,2, 1, 2, 0,19, 0.00,60.00,Monday
673,637161.0284207375
722,2865999.258652394
2,2, 1, 2, 0,20, 0.00,60.00,Monday
673,782799.854417017
722,2615913.0379118775
2,2, 1, 2, 0,21, 0.00,60.00,Monday
673,901820.9476622263
722,2402111.7804683195
2,2, 1, 2, 0,22, 0.00,60.00,Monday
673,947739.2906126052
722,2299584.6818584995
2,2, 1, 2, 0,23, 0.00,60.00,Monday
673,1019499.8799268563
722,2220835.5378413415
2,2, 1, 2, 0,24, 0.00,60.00,Monday
673,1010202.9939953978
722,2212615.689019529
2,3, 1, 3, 0, 1, 0.00,60.00,Tuesday
673,981569.6425841133
722,2216760.1525365543
2,3, 1, 3, 0, 2, 0.00,60.00,Tuesday
673,1110569.0227130395
722,2076643.5388491317
2,3, 1, 3, 0, 3, 0.00,60.00,Tuesday
673,1157107.853972036
722,1972773.3588175059
2,3, 1, 3, 0, 4, 0.00,60.00,Tuesday
673,1093785.0892060634
722,1947612.6526137902
2,3, 1, 3, 0, 5, 0.00,60.00,Tuesday
673,1095738.819815639
722,1915814.3200428095
2,3, 1, 3, 0, 6, 0.00,60.00,Tuesday
673,1128107.3449442727
722,1869883.7673577752
2,3, 1, 3, 0, 7, 0.00,60.00,Tuesday
673,1137049.8064735103
722,1850147.6057192488
2,3, 1, 3, 0, 8, 0.00,60.00,Tuesday
673,1153723.2773055942
722,1826584.4053443389
2,3, 1, 3, 0, 9, 0.00,60.00,Tuesday
673,1148262.3676391933
722,0.0
2,3, 1, 3, 0,10, 0.00,60.00,Tuesday
673,1823195.7687228336
722,0.0
2,3, 1, 3, 0,11, 0.00,60.00,Tuesday
673,2090527.3613239157
722,0.0
2,3, 1, 3, 0,12, 0.00,60.00,Tuesday
673,1931177.993111087
722,0.0
2,3, 1, 3, 0,13, 0.00,60.00,Tuesday
673,1918792.8815664987
722,0.0
2,3, 1, 3, 0,14, 0.00,60.00,Tuesday
673,2091543.4426290127
722,0.0
2,3, 1, 3, 0,15, 0.00,60.00,Tuesday
673,2186668.326199904
722,0.0
2,3, 1, 3, 0,16, 0.00,60.00,Tuesday
673,2727783.8453442845
722,0.0
2,3, 1, 3, 0,17, 0.00,60.00,Tuesday
673,1603557.130499396
722,21621.027820141167
2,3, 1, 3, 0,18, 0.00,60.00,Tuesday
673,1565616.3282561947
722,700627.140092092
2,3, 1, 3, 0,19, 0.00,60.00,Tuesday
673,1571259.2299405728
722,863763.7925766546
2,3, 1, 3, 0,20, 0.00,60.00,Tuesday
673,1611340.61547834
722,798542.6220770604
2,3, 1, 3, 0,21, 0.00,60.00,Tuesday
673,1643005.1535005844
722,771760.4394222007
2,3, 1, 3, 0,22, 0.00,60.00,Tuesday
673,1680054.555494404
722,791815.0780854938
2,3, 1, 3, 0,23, 0.00,60.00,Tuesday
673,1689812.3664592
722,796762.3258834631
2,3, 1, 3, 0,24, 0.00,60.00,Tuesday
673,1716272.9584550427
722,763222.6460294757
2,4, 1, 4, 0, 1, 0.00,60.00,Wednesday
673,1749706.4364765885
722,713924.7866679275
2,4, 1, 4, 0, 2, 0.00,60.00,Wednesday
673,1805492.8479114783
722,630058.3414656998
2,4, 1, 4, 0, 3, 0.00,60.00,Wednesday
673,1868011.4819361602
722,524266.21962269995
2,4, 1, 4, 0, 4, 0.00,60.00,Wednesday
673,1940010.9126476615
722,398246.01439194893
2,4, 1, 4, 0, 5, 0.00,60.00,Wednesday
673,2015982.7746702414
722,257460.86808592154
2,4, 1, 4, 0, 6, 0.00,60.00,Wednesday
673,2094301.6855619568
722,110703.44899433984
2,4, 1, 4, 0, 7, 0.00,60.00,Wednesday
673,2166354.645618257
722,4065.8958133642955
2,4, 1, 4, 0, 8, 0.00,60.00,Wednesday
673,2210525.9696558784
722,0.0
2,4, 1, 4, 0, 9, 0.00,60.00,Wednesday
673,3289248.6295042513
722,0.0
2,4, 1, 4, 0,10, 0.00,60.00,Wednesday
673,4194996.242207658
722,0.0
2,4, 1, 4, 0,11, 0.00,60.00,Wednesday
673,3586362.9371378906
722,0.0
2,4, 1, 4, 0,12, 0.00,60.00,Wednesday
673,2987693.685141605
722,0.0
2,4, 1, 4, 0,13, 0.00,60.00,Wednesday
673,2578693.8341764957
722,0.0
2,4, 1, 4, 0,14, 0.00,60.00,Wednesday
673,2139507.50287935
722,0.0
2,4, 1, 4, 0,15, 0.00,60.00,Wednesday
673,1969086.2897597472
722,0.0
2,4, 1, 4, 0,16, 0.00,60.00,Wednesday
673,2002989.5586403243
722,0.0
2,4, 1, 4, 0,17, 0.00,60.00,Wednesday
673,1292190.595200933
722,376008.6099004911
2,4, 1, 4, 0,18, 0.00,60.00,Wednesday
673,1224814.7381180662
722,1457504.1090221156
2,4, 1, 4, 0,19, 0.00,60.00,Wednesday
673,1229215.3582855286
722,1544628.2513860236
2,4, 1, 4, 0,20, 0.00,60.00,Wednesday
673,1256165.322932482
722,1478344.16783729
2,4, 1, 4, 0,21, 0.00,60.00,Wednesday
673,1369136.888807503
722,1337673.3164916087
2,4, 1, 4, 0,22, 0.00,60.00,Wednesday
673,1550438.8327049497
722,1204878.667484202
2,4, 1, 4, 0,23, 0.00,60.00,Wednesday
673,1621742.916028814
722,1115260.2316936566
2,4, 1, 4, 0,24, 0.00,60.00,Wednesday
673,1650232.8475139723
722,1053195.9207551326
2,5, 1, 5, 0, 1, 0.00,60.00,Thursday
673,1645701.171925101
722,1028294.2565756872
2,5, 1, 5, 0, 2, 0.00,60.00,Thursday
673,1645722.4992751032
722,1003467.7142899415
2,5, 1, 5, 0, 3, 0.00,60.00,Thursday
673,1733476.135656533
722,933410.7905282427
2,5, 1, 5, 0, 4, 0.00,60.00,Thursday
673,1830509.4451193782
722,924216.805465443
2,5, 1, 5, 0, 5, 0.00,60.00,Thursday
673,1955738.2663341719
722,798389.6249326058
2,5, 1, 5, 0, 6, 0.00,60.00,Thursday
673,2050011.388869292
722,661514.6905672919
2,5, 1, 5, 0, 7, 0.00,60.00,Thursday
673,2049531.9638026482
722,601634.9039890084
2,5, 1, 5, 0, 8, 0.00,60.00,Thursday
673,2084352.3424343835
722,538973.0850933809
2,5, 1, 5, 0, 9, 0.00,60.00,Thursday
673,2657818.685972398
722,0.0
2,5, 1, 5, 0,10, 0.00,60.00,Thursday
673,3717897.9928327063
722,0.0
2,5, 1, 5, 0,11, 0.00,60.00,Thursday
673,2778053.3425883264
722,0.0
2,5, 1, 5, 0,12, 0.00,60.00,Thursday
673,1732858.113980229
722,0.0
2,5, 1, 5, 0,13, 0.00,60.00,Thursday
673,1027743.3012256122
722,0.0
2,5, 1, 5, 0,14, 0.00,60.00,Thursday
673,839614.9298108462
722,0.0
2,5, 1, 5, 0,15, 0.00,60.00,Thursday
673,815048.0326820352
722,0.0
2,5, 1, 5, 0,16, 0.00,60.00,Thursday
673,852873.184506383
722,0.0
2,5, 1, 5, 0,17, 0.00,60.00,Thursday
673,925894.7570983194
722,955591.4654316516
2,5, 1, 5, 0,18, 0.00,60.00,Thursday
673,864072.9629177132
722,2116813.774983259
2,5, 1, 5, 0,19, 0.00,60.00,Thursday
673,838177.2036365356
722,2234100.618948604
2,5, 1, 5, 0,20, 0.00,60.00,Thursday
673,862297.3838421383
722,2195940.3671747283
2,5, 1, 5, 0,21, 0.00,60.00,Thursday
673,894647.8478759648
722,2143954.170727568
2,5, 1, 5, 0,22, 0.00,60.00,Thursday
673,937735.4486030419
722,2091838.5487591403
2,5, 1, 5, 0,23, 0.00,60.00,Thursday
673,967555.7346531834
722,2050155.307282446
2,5, 1, 5, 0,24, 0.00,60.00,Thursday
673,998078.71507022
722,2007818.2632242022
2,6, 1, 6, 0, 1, 0.00,60.00,Friday
673,1000403.6638083356
722,1987493.8045313763
2,6, 1, 6, 0, 2, 0.00,60.00,Friday
673,996862.4631713405
722,1964834.9986792991
2,6, 1, 6, 0, 3, 0.00,60.00,Friday
673,1073746.689621026
722,1858076.9090288822
2,6, 1, 6, 0, 4, 0.00,60.00,Friday
673,1239976.892366855
722,1660197.121883861
2,6, 1, 6, 0, 5, 0.00,60.00,Friday
673,1381153.023989644
722,1429682.775939216
2,6, 1, 6, 0, 6, 0.00,60.00,Friday
673,1495671.637578517
722,1206900.161048003
2,6, 1, 6, 0, 7, 0.00,60.00,Friday
673,1612109.9028520996
722,990883.3115448215
2,6, 1, 6, 0, 8, 0.00,60.00,Friday
673,1727636.8703124768
722,806094.7353155911
2,6, 1, 6, 0, 9, 0.00,60.00,Friday
673,2114977.272102739
722,0.0
2,6, 1, 6, 0,10, 0.00,60.00,Friday
673,2847485.1328151636
722,0.0
2,6, 1, 6, 0,11, 0.00,60.00,Friday
673,2237818.0502227903
722,0.0
2,6, 1, 6, 0,12, 0.00,60.00,Friday
673,1584119.9955150727
722,0.0
2,6, 1, 6, 0,13, 0.00,60.00,Friday
673,1054727.9642473536
722,0.0
2,6, 1, 6, 0,14, 0.00,60.00,Friday
673,747054.2750109679
722,0.0
2,6, 1, 6, 0,15, 0.00,60.00,Friday
673,676062.4952878057
722,0.0
2,6, 1, 6, 0,16, 0.00,60.00,Friday
673,673307.0558943098
722,0.0
2,6, 1, 6, 0,17, 0.00,60.00,Friday
673,640190.9248898521
722,1444328.9081173101
2,6, 1, 6, 0,18, 0.00,60.00,Friday
673,642411.5684425379
722,2515125.7065900164
2,6, 1, 6, 0,19, 0.00,60.00,Friday
673,728629.0858178112
722,2459588.5864140387
2,6, 1, 6, 0,20, 0.00,60.00,Friday
673,817606.4366170194
722,2288986.3142628437
2,6, 1, 6, 0,21, 0.00,60.00,Friday
673,910649.6750294603
722,2114417.4931941633
2,6, 1, 6, 0,22, 0.00,60.00,Friday
673,1054421.0487954756
722,1923444.6471408803
2,6, 1, 6, 0,23, 0.00,60.00,Friday
673,1194381.9949395563
722,1722898.0289785601
2,6, 1, 6, 0,24, 0.00,60.00,Friday
673,1273547.800142016
722,1592770.332854565
2,7, 1, 7, 0, 1, 0.00,60.00,Saturday
673,1327171.864013725
722,1502393.823547487
2,7, 1, 7, 0, 2, 0.00,60.00,Saturday
673,1356047.8868089283
722,1441715.1114874007
2,7, 1, 7, 0, 3, 0.00,60.00,Saturday
673,1403997.292528503
722,1372951.1367389436
2,7, 1, 7, 0, 4, 0.00,60.00,Saturday
673,1492335.6066104372
722,1279894.6919602433
2,7, 1, 7, 0, 5, 0.00,60.00,Saturday
673,1561583.8472717078
722,1163059.1305497284
2,7, 1, 7, 0, 6, 0.00,60.00,Saturday
673,1629481.8651550326
722,1038068.6535578922
2,7, 1, 7, 0, 7, 0.00,60.00,Saturday
673,1728495.0060911758
722,886518.2793708969
2,7, 1, 7, 0, 8, 0.00,60.00,Saturday
673,1729454.8085334536
722,846139.9851325246
2,7, 1, 7, 0, 9, 0.00,60.00,Saturday
673,2103177.036771172
722,0.0
2,7, 1, 7, 0,10, 0.00,60.00,Saturday
673,2703279.426401847
722,0.0
2,7, 1, 7, 0,11, 0.00,60.00,Saturday
673,2148840.5690981173
722,0.0
2,7, 1, 7, 0,12, 0.00,60.00,Saturday
673,1535922.8930246686
722,0.0
2,7, 1, 7, 0,13, 0.00,60.00,Saturday
673,1112159.8462273225
722,0.0
2,7, 1, 7, 0,14, 0.00,60.00,Saturday
673,962565.6557136195
722,0.0
2,7, 1, 7, 0,15, 0.00,60.00,Saturday
673,992141.9995348467
722,0.0
2,7, 1, 7, 0,16, 0.00,60.00,Saturday
673,1292452.233312763
722,0.0
2,7, 1, 7, 0,17, 0.00,60.00,Saturday
673,1146058.5152908808
722,770847.0636583769
2,7, 1, 7, 0,18, 0.00,60.00,Saturday
673,1091107.9071939448
722,2031563.352048364
2,7, 1, 7, 0,19, 0.00,60.00,Saturday
673,1055272.0344090546
722,2166909.9963171277
2,7, 1, 7, 0,20, 0.00,60.00,Saturday
673,1129789.5893116076
722,2068826.2633861795
2,7, 1, 7, 0,21, 0.00,60.00,Saturday
673,1223668.3780135948
722,1954205.4275725158
2,7, 1, 7, 0,22, 0.00,60.00,Saturday
673,1337719.8846264991
722,1850832.8812210886
2,7, 1, 7, 0,23, 0.00,60.00,Saturday
673,1338083.6449200492
722,1798038.3177854382
2,7, 1, 7, 0,24, 0.00,60.00,Saturday
673,1441053.126516393
722,1661235.7700911846
2,8, 1, 8, 0, 1, 0.00,60.00,Sunday
673,1531532.5901048526
722,1531198.1880121452
2,8, 1, 8, 0, 2, 0.00,60.00,Sunday
673,1504261.4618018067
722,1497908.9460493808
2,8, 1, 8, 0, 3, 0.00,60.00,Sunday
673,1500328.2193852924
722,1392038.2476506922
2,8, 1, 8, 0, 4, 0.00,60.00,Sunday
673,1470311.0399653087
722,1238786.163356735
2,8, 1, 8, 0, 5, 0.00,60.00,Sunday
673,1520842.1605223608
722,1131053.696275426
2,8, 1, 8, 0, 6, 0.00,60.00,Sunday
673,1595344.0072923377
722,1024910.5663266946
2,8, 1, 8, 0, 7, 0.00,60.00,Sunday
673,1589043.2275560065
722,1010593.0571343239
2,8, 1, 8, 0, 8, 0.00,60.00,Sunday
673,1599533.008079461
722,993163.2827649625
2,8, 1, 8, 0, 9, 0.00,60.00,Sunday
673,1871924.001946495
722,0.0
2,8, 1, 8, 0,10, 0.00,60.00,Sunday
673,2748110.3631355753
722,0.0
2,8, 1, 8, 0,11, 0.00,60.00,Sunday
673,2308660.8786127456
722,0.0
2,8, 1, 8, 0,12, 0.00,60.00,Sunday
673,1674619.7397130483
722,0.0
2,8, 1, 8, 0,13, 0.00,60.00,Sunday
673,1237233.8609456753
722,0.0
2,8, 1, 8, 0,14, 0.00,60.00,Sunday
673,1302023.9881401525
722,0.0
2,8, 1, 8, 0,15, 0.00,60.00,Sunday
673,1115450.679100734
722,0.0
2,8, 1, 8, 0,16, 0.00,60.00,Sunday
673,1001980.5336760909
722,0.0
2,8, 1, 8, 0,17, 0.00,60.00,Sunday
673,1161272.0358801605
722,810710.973779527
2,8, 1, 8, 0,18, 0.00,60.00,Sunday
673,1202080.6779938992
722,1827766.1381858434
2,8, 1, 8, 0,19, 0.00,60.00,Sunday
673,1377673.8659942844
722,1716545.6193955522
2,8, 1, 8, 0,20, 0.00,60.00,Sunday
673,1455784.5766627342
722,1581113.9791377191
2,8, 1, 8, 0,21, 0.00,60.00,Sunday
673,1525684.4780866324
722,1452865.3795023714
2,8, 1, 8, 0,22, 0.00,60.00,Sunday
673,1562616.7461356814
722,1366589.749598404
2,8, 1, 8, 0,23, 0.00,60.00,Sunday
673,1618376.4982973589
722,1290703.4625063846
2,8, 1, 8, 0,24, 0.00,60.00,Sunday
673,1628085.3656138864
722,1270534.203064252
2,9, 1, 9, 0, 1, 0.00,60.00,Monday
673,1610689.2628654477
722,1282572.4700138702
2,9, 1, 9, 0, 2, 0.00,60.00,Monday
673,1560586.5978799872
722,1327111.1412186776
2,9, 1, 9, 0, 3, 0.00,60.00,Monday
673,1540557.8559194698
722,1308116.7835002868
2,9, 1, 9, 0, 4, 0.00,60.00,Monday
673,1550498.6276362056
722,1183923.9684731842
2,9, 1, 9, 0, 5, 0.00,60.00,Monday
673,1606538.461680945
722,1085698.8809268926
2,9, 1, 9, 0, 6, 0.00,60.00,Monday
673,1614660.3959001363
722,1048065.9860024359
2,9, 1, 9, 0, 7, 0.00,60.00,Monday
673,1579516.9658492305
722,1055293.5939638694
2,9, 1, 9, 0, 8, 0.00,60.00,Monday
673,1625270.8839207361
722,998369.9732311228
2,9, 1, 9, 0, 9, 0.00,60.00,Monday
673,1857123.6864549
722,0.0
2,9, 1, 9, 0,10, 0.00,60.00,Monday
673,2435295.3637974244
722,0.0
2,9, 1, 9, 0,11, 0.00,60.00,Monday
673,1698757.460821595
722,0.0
2,9, 1, 9, 0,12, 0.00,60.00,Monday
673,1144439.0151336475
722,0.0
2,9, 1, 9, 0,13, 0.00,60.00,Monday
673,785285.2686409431
722,0.0
2,9, 1, 9, 0,14, 0.00,60.00,Monday
673,638195.0357355176
722,0.0
2,9, 1, 9, 0,15, 0.00,60.00,Monday
673,836101.1405132803
722,0.0
2,9, 1, 9, 0,16, 0.00,60.00,Monday
673,1205568.8828943882
722,0.0
2,9, 1, 9, 0,17, 0.00,60.00,Monday
673,992793.1750012821
722,827783.1583284261
2,9, 1, 9, 0,18, 0.00,60.00,Monday
673,954883.5322662272
722,2063395.5199439754
2,9, 1, 9, 0,19, 0.00,60.00,Monday
673,1021878.3988540447
722,2065461.9104905585
2,9, 1, 9, 0,20, 0.00,60.00,Monday
673,1117020.8703039107
722,1918334.6527821755
2,9, 1, 9, 0,21, 0.00,60.00,Monday
673,1215620.400192053
722,1755462.241169898
2,9, 1, 9, 0,22, 0.00,60.00,Monday
673,1304453.8288565176
722,1609997.0011046142
2,9, 1, 9, 0,23, 0.00,60.00,Monday
673,1301236.495724342
722,1572252.4657482835
2,9, 1, 9, 0,24, 0.00,60.00,Monday
673,1294018.7095589037
722,1561457.0297705417
2,10, 1,10, 0, 1, 0.00,60.00,Tuesday
673,1320363.8808859868
722,1533028.0336616123
2,10, 1,10, 0, 2, 0.00,60.00,Tuesday
673,1337000.8444659566
722,1517521.5023389945
2,10, 1,10, 0, 3, 0.00,60.00,Tuesday
673,1335786.8138474238
722,1521454.3124010405
2,10, 1,10, 0, 4, 0.00,60.00,Tuesday
673,1299270.6766008195
722,1554717.798724268
2,10, 1,10, 0, 5, 0.00,60.00,Tuesday
673,1277095.289628027
722,1569522.5283424496
2,10, 1,10, 0, 6, 0.00,60.00,Tuesday
673,1295129.4622207135
722,1542204.3744863272
2,10, 1,10, 0, 7, 0.00,60.00,Tuesday
673,1299284.196650333
722,1529801.4906992149
2,10, 1,10, 0, 8, 0.00,60.00,Tuesday
673,1341203.4348983886
722,1493518.519556355
2,10, 1,10, 0, 9, 0.00,60.00,Tuesday
673,1385205.997161068
722,0.0
2,10, 1,10, 0,10, 0.00,60.00,Tuesday
673,2078481.5802349236
722,0.0
2,10, 1,10, 0,11, 0.00,60.00,Tuesday
673,2267261.819924908
722,0.0
2,10, 1,10, 0,12, 0.00,60.00,Tuesday
673,1953453.465310121
722,0.0
2,10, 1,10, 0,13, 0.00,60.00,Tuesday
673,932211.0720972301
722,0.0
2,10, 1,10, 0,14, 0.00,60.00,Tuesday
673,557681.2031392582
722,0.0
2,10, 1,10, 0,15, 0.00,60.00,Tuesday
673,721339.1690541512
722,0.0
2,10, 1,10, 0,16, 0.00,60.00,Tuesday
673,1299662.5143063518
722,0.0
2,10, 1,10, 0,17, 0.00,60.00,Tuesday
673,1178399.0297351691
722,525879.4156053961
2,10, 1,10, 0,18, 0.00,60.00,Tuesday
673,1212887.654379733
722,1543375.6571361038
2,10, 1,10, 0,19, 0.00,60.00,Tuesday
673,1337892.8394160361
722,1438008.4585394396
2,10, 1,10, 0,20, 0.00,60.00,Tuesday
673,1437156.9617267668
722,1277941.0051477314
2,10, 1,10, 0,21, 0.00,60.00,Tuesday
673,1513496.372910873
722,1201294.2728263782
2,10, 1,10, 0,22, 0.00,60.00,Tuesday
673,1467190.9883390886
722,1308370.3430660858
2,10, 1,10, 0,23, 0.00,60.00,Tuesday
673,1411751.639606906
722,1386087.8859333862
2,10, 1,10, 0,24, 0.00,60.00,Tuesday
673,1454285.0889038695
722,1328479.3445367771
2,11, 1,11, 0, 1, 0.00,60.00,Wednesday
673,1523172.1974802543
722,1211384.4781760452
2,11, 1,11, 0, 2, 0.00,60.00,Wednesday
673,1573942.2296977628
722,1093059.8564650614
2,11, 1,11, 0, 3, 0.00,60.00,Wednesday
673,1685687.8364732917
722,962727.8145465746
2,11, 1,11, 0, 4, 0.00,60.00,Wednesday
673,1872141.2695450347
722,851677.3031536851
2,11, 1,11, 0, 5, 0.00,60.00,Wednesday
673,1899644.6887296005
722,802178.4391721176
2,11, 1,11, 0, 6, 0.00,60.00,Wednesday
673,1935212.0079823323
722,745988.4487115281
2,11, 1,11, 0, 7, 0.00,60.00,Wednesday
673,1968862.6474704552
722,706765.8754210704
2,11, 1,11, 0, 8, 0.00,60.00,Wednesday
673,1950039.3647519154
722,714789.8651733842
2,11, 1,11, 0, 9, 0.00,60.00,Wednesday
673,2251867.466704584
722,0.0
2,11, 1,11, 0,10, 0.00,60.00,Wednesday
673,2933672.4590740725
722,0.0
2,11, 1,11, 0,11, 0.00,60.00,Wednesday
673,2614406.2003635056
722,0.0
2,11, 1,11, 0,12, 0.00,60.00,Wednesday
673,2396781.2389800684
722,0.0
2,11, 1,11, 0,13, 0.00,60.00,Wednesday
673,1844623.3430628472
722,0.0
2,11, 1,11, 0,14, 0.00,60.00,Wednesday
673,1886392.6850605141
722,0.0
2,11, 1,11, 0,15, 0.00,60.00,Wednesday
673,2107772.6052231733
722,0.0
2,11, 1,11, 0,16, 0.00,60.00,Wednesday
673,1680951.1941006011
722,0.0
2,11, 1,11, 0,17, 0.00,60.00,Wednesday
673,1160816.2929113903
722,649277.8105871441
2,11, 1,11, 0,18, 0.00,60.00,Wednesday
673,1089818.192077284
722,1804304.4251657533
2,11, 1,11, 0,19, 0.00,60.00,Wednesday
673,1137059.565459917
722,1853309.14188828
2,11, 1,11, 0,20, 0.00,60.00,Wednesday
673,1207834.5542241847
722,1754498.862331137
2,11, 1,11, 0,21, 0.00,60.00,Wednesday
673,1282494.6082026022
722,1608427.6377917354
2,11, 1,11, 0,22, 0.00,60.00,Wednesday
673,1283067.5631497935
722,1504936.8104040634
2,11, 1,11, 0,23, 0.00,60.00,Wednesday
673,1318706.5538589538
722,1422431.5934852294
2,11, 1,11, 0,24, 0.00,60.00,Wednesday
673,1343607.070474277
722,1368718.6696846618
2,12, 1,12, 0, 1, 0.00,60.00,Thursday
673,1422556.4948597425
722,1263257.508482325
2,12, 1,12, 0, 2, 0.00,60.00,Thursday
673,1457910.2352731451
722,1207824.9664302294
2,12, 1,12, 0, 3, 0.00,60.00,Thursday
673,1467965.3767033615
722,1207238.5352949281
2,12, 1,12, 0, 4, 0.00,60.00,Thursday
673,1502888.2343670877
722,1228692.2621332204
2,12, 1,12, 0, 5, 0.00,60.00,Thursday
673,1504759.746902784
722,1234241.5831561126
2,12, 1,12, 0, 6, 0.00,60.00,Thursday
673,1484085.0603491832
722,1248646.8676713945
2,12, 1,12, 0, 7, 0.00,60.00,Thursday
673,1495512.418417129
722,1231539.274708654
2,12, 1,12, 0, 8, 0.00,60.00,Thursday
673,1507790.8585857677
722,1222895.2326633732
2,12, 1,12, 0, 9, 0.00,60.00,Thursday
673,1735163.995354218
722,0.0
2,12, 1,12, 0,10, 0.00,60.00,Thursday
673,2799392.9900553674
722,0.0
2,12, 1,12, 0,11, 0.00,60.00,Thursday
673,2965135.8699584687
722,0.0
2,12, 1,12, 0,12, 0.00,60.00,Thursday
673,2807428.344093576
722,0.0
2,12, 1,12, 0,13, 0.00,60.00,Thursday
673,2616815.9042656748
722,0.0
2,12, 1,12, 0,14, 0.00,60.00,Thursday
673,2443885.8287931317
722,0.0
2,12, 1,12, 0,15, 0.00,60.00,Thursday
673,1622850.5829234375
722,0.0
2,12, 1,12, 0,16, 0.00,60.00,Thursday
673,1728543.64333777
722,0.0
2,12, 1,12, 0,17, 0.00,60.00,Thursday
673,1235464.2249559504
722,454269.04368890874
2,12, 1,12, 0,18, 0.00,60.00,Thursday
673,1159609.7908077836
722,1621820.507897246
2,12, 1,12, 0,19, 0.00,60.00,Thursday
673,1158956.0190413373
722,1702965.530502091
2,12, 1,12, 0,20, 0.00,60.00,Thursday
673,1184791.9409627803
722,1667473.5391272325
2,12, 1,12, 0,21, 0.00,60.00,Thursday
673,1225785.881637905
722,1613855.3676796604
2,12, 1,12, 0,22, 0.00,60.00,Thursday
673,1231331.108553816
722,1610975.6730215757
2,12, 1,12, 0,23, 0.00,60.00,Thursday
673,1239945.9881960358
722,1588219.3670833758
2,12, 1,12, 0,24, 0.00,60.00,Thursday
673,1271977.168310581
722,1538543.8125040475
2,13, 1,13, 0, 1, 0.00,60.00,Friday
673,1367436.4277270297
722,1422936.658986968
2,13, 1,13, 0, 2, 0.00,60.00,Friday
673,1377536.4958936868
722,1392888.5711315093
2,13, 1,13, 0, 3, 0.00,60.00,Friday
673,1372297.4817689166
722,1431640.8720154124
2,13, 1,13, 0, 4, 0.00,60.00,Friday
673,1464992.1392715552
722,1482317.3970766992
2,13, 1,13, 0, 5, 0.00,60.00,Friday
673,1554231.2707647886
722,1440675.6956792567
2,13, 1,13, 0, 6, 0.00,60.00,Friday
673,1539456.0106690614
722,1444725.8007174965
2,13, 1,13, 0, 7, 0.00,60.00,Friday
673,1534294.796835698
722,1441813.2694566033
2,13, 1,13, 0, 8, 0.00,60.00,Friday
673,1625827.9680657813
722,1361271.6481860725
2,13, 1,13, 0, 9, 0.00,60.00,Friday
673,1850783.435031235
722,0.0
2,13, 1,13, 0,10, 0.00,60.00,Friday
673,3065729.0420162436
722,0.0
2,13, 1,13, 0,11, 0.00,60.00,Friday
673,3463188.8303761557
722,0.0
2,13, 1,13, 0,12, 0.00,60.00,Friday
673,3569111.8144719275
722,0.0
2,13, 1,13, 0,13, 0.00,60.00,Friday
673,3592696.0478133126
722,0.0
2,13, 1,13, 0,14, 0.00,60.00,Friday
673,3564030.6667758073
722,0.0
2,13, 1,13, 0,15, 0.00,60.00,Friday
673,3401371.712912609
722,0.0
2,13, 1,13, 0,16, 0.00,60.00,Friday
673,3198264.1201491617
722,0.0
2,13, 1,13, 0,17, 0.00,60.00,Friday
673,1536023.1353667085
722,100495.87111717078
2,13, 1,13, 0,18, 0.00,60.00,Friday
673,1324455.98187716
722,1216426.3395869602
2,13, 1,13, 0,19, 0.00,60.00,Friday
673,1255515.0682781814
722,1525425.823116673
2,13, 1,13, 0,20, 0.00,60.00,Friday
673,1249675.2398975333
722,1548865.288558862
2,13, 1,13, 0,21, 0.00,60.00,Friday
673,1265501.4575259024
722,1505538.8194713425
2,13, 1,13, 0,22, 0.00,60.00,Friday
673,1362474.0155845908
722,1386934.1041864508
2,13, 1,13, 0,23, 0.00,60.00,Friday
673,1375848.3584214794
722,1359574.116073741
2,13, 1,13, 0,24, 0.00,60.00,Friday
673,1366026.4732985948
722,1363233.9938875798
2,14, 1,14, 0, 1, 0.00,60.00,Saturday
673,1439728.5449736682
722,1256192.9320676376
2,14, 1,14, 0, 2, 0.00,60.00,Saturday
673,1526085.3052944364
722,1117304.1421880391
2,14, 1,14, 0, 3, 0.00,60.00,Saturday
673,1625251.4784399956
722,984260.5519625708
2,14, 1,14, 0, 4, 0.00,60.00,Saturday
673,1631064.6386902793
722,988939.2898545087
2,14, 1,14, 0, 5, 0.00,60.00,Saturday
673,1624260.6956661034
722,997561.1015876674
2,14, 1,14, 0, 6, 0.00,60.00,Saturday
673,1678855.2638757238
722,935592.374836185
2,14, 1,14, 0, 7, 0.00,60.00,Saturday
673,1676382.6565114078
722,915373.7463361747
2,14, 1,14, 0, 8, 0.00,60.00,Saturday
673,1684690.1206201112
722,889458.4508888329
2,14, 1,14, 0, 9, 0.00,60.00,Saturday
673,2255679.2034871792
722,0.0
2,14, 1,14, 0,10, 0.00,60.00,Saturday
673,3729883.539478586
722,0.0
2,14, 1,14, 0,11, 0.00,60.00,Saturday
673,3953066.45651016
722,0.0
2,14, 1,14, 0,12, 0.00,60.00,Saturday
673,3988680.09172773
722,0.0
2,14, 1,14, 0,13, 0.00,60.00,Saturday
673,3987013.3564951327
722,0.0
2,14, 1,14, 0,14, 0.00,60.00,Saturday
673,4054236.724159144
722,0.0
2,14, 1,14, 0,15, 0.00,60.00,Saturday
673,4074339.337442508
722,0.0
2,14, 1,14, 0,16, 0.00,60.00,Saturday
673,4105491.793088002
722,0.0
2,14, 1,14, 0,17, 0.00,60.00,Saturday
673,2023108.6919644207
722,0.0
2,14, 1,14, 0,18, 0.00,60.00,Saturday
673,1930337.7202221116
722,58601.43661040729
2,14, 1,14, 0,19, 0.00,60.00,Saturday
673,1860757.3065047031
722,429488.0217465276
2,14, 1,14, 0,20, 0.00,60.00,Saturday
673,1864197.8024966528
722,484569.13891142345
2,14, 1,14, 0,21, 0.00,60.00,Saturday
673,1891866.7772140957
722,471708.7931225755
2,14, 1,14, 0,22, 0.00,60.00,Saturday
673,1884240.9156800117
722,537223.6473064189
2,14, 1,14, 0,23, 0.00,60.00,Saturday
673,1912524.509929663
722,521625.281528478
2,14, 1,14, 0,24, 0.00,60.00,Saturday
673,1916514.9910514061
722,511177.2116729934
2,15, 1,15, 0, 1, 0.00,60.00,Sunday
673,1916970.5862241122
722,506245.1336071731
2,15, 1,15, 0, 2, 0.00,60.00,Sunday
673,1924263.5479971252
722,495857.35521237814
2,15, 1,15, 0, 3, 0.00,60.00,Sunday
673,1980136.1320063025
722,480028.4097598997
2,15, 1,15, 0, 4, 0.00,60.00,Sunday
673,2048402.9049505
722,529897.2465471568
2,15, 1,15, 0, 5, 0.00,60.00,Sunday
673,2011565.2903037474
722,568187.259076684
2,15, 1,15, 0, 6, 0.00,60.00,Sunday
673,1951391.6388635621
722,594875.7598317431
2,15, 1,15, 0, 7, 0.00,60.00,Sunday
673,1975109.2927556788
722,558255.5265640498
2,15, 1,15, 0, 8, 0.00,60.00,Sunday
673,2006435.8496251646
722,527776.5989368939
2,15, 1,15, 0, 9, 0.00,60.00,Sunday
673,2715854.8945129584
722,0.0
2,15, 1,15, 0,10, 0.00,60.00,Sunday
673,3791800.892539853
722,0.0
2,15, 1,15, 0,11, 0.00,60.00,Sunday
673,3758519.396935219
722,0.0
2,15, 1,15, 0,12, 0.00,60.00,Sunday
673,3593555.773645195
722,0.0
2,15, 1,15, 0,13, 0.00,60.00,Sunday
673,3539478.7138885865
722,0.0
2,15, 1,15, 0,14, 0.00,60.00,Sunday
673,3036211.948496842
722,0.0
2,15, 1,15, 0,15, 0.00,60.00,Sunday
673,2671326.9445651276
722,0.0
2,15, 1,15, 0,16, 0.00,60.00,Sunday
673,2825542.241402137
722,0.0
2,15, 1,15, 0,17, 0.00,60.00,Sunday
673,1763347.9289979213
722,0.0
2,15, 1,15, 0,18, 0.00,60.00,Sunday
673,1824403.8693543642
722,453941.9154107269
2,15, 1,15, 0,19, 0.00,60.00,Sunday
673,1825290.0758404424
722,653047.8410971788
2,15, 1,15, 0,20, 0.00,60.00,Sunday
673,1838054.8383940589
722,627838.8956088775
2,15, 1,15, 0,21, 0.00,60.00,Sunday
673,1940502.553926622
722,549549.1981151609
2,15, 1,15, 0,22, 0.00,60.00,Sunday
673,2033620.265014355
722,563460.4515040754
2,15, 1,15, 0,23, 0.00,60.00,Sunday
673,2024774.5487954116
722,582669.9485056404
2,15, 1,15, 0,24, 0.00,60.00,Sunday
673,2039364.134473912
722,572271.7370654678
2,16, 1,16, 0, 1, 0.00,60.00,Monday
673,2064043.9745257548
722,554063.4282423792
2,16, 1,16, 0, 2, 0.00,60.00,Monday
673,2120974.745009057
722,511065.528832616
2,16, 1,16, 0, 3, 0.00,60.00,Monday
673,2076592.0486125716
722,490907.0072152873
2,16, 1,16, 0, 4, 0.00,60.00,Monday
673,2030701.4138097782
722,388289.7700139185
2,16, 1,16, 0, 5, 0.00,60.00,Monday
673,2041618.7629251145
722,325323.91184996814
2,16, 1,16, 0, 6, 0.00,60.00,Monday
673,2120035.1768881497
722,217645.66325383328
2,16, 1,16, 0, 7, 0.00,60.00,Monday
673,2190524.5056750486
722,120511.08486395639
2,16, 1,16, 0, 8, 0.00,60.00,Monday
673,2174381.519502721
722,116650.02553554838
2,16, 1,16, 0, 9, 0.00,60.00,Monday
673,3006826.640869507
722,0.0
2,16, 1,16, 0,10, 0.00,60.00,Monday
673,4567500.963072383
722,0.0
2,16, 1,16, 0,11, 0.00,60.00,Monday
673,4162723.249428492
722,0.0
2,16, 1,16, 0,12, 0.00,60.00,Monday
673,3558374.576627613
722,0.0
2,16, 1,16, 0,13, 0.00,60.00,Monday
673,3570337.1194842607
722,0.0
2,16, 1,16, 0,14, 0.00,60.00,Monday
673,3592937.58968487
722,0.0
2,16, 1,16, 0,15, 0.00,60.00,Monday
673,2998012.0614885176
722,0.0
2,16, 1,16, 0,16, 0.00,60.00,Monday
673,3100558.6362272645
722,0.0
2,16, 1,16, 0,17, 0.00,60.00,Monday
673,1831588.3454749584
722,0.0
2,16, 1,16, 0,18, 0.00,60.00,Monday
673,1866241.5508737676
722,476740.7057488184
2,16, 1,16, 0,19, 0.00,60.00,Monday
673,1824366.5632849284
722,825105.360954456
2,16, 1,16, 0,20, 0.00,60.00,Monday
673,1808036.0953513994
722,870311.3436791489
2,16, 1,16, 0,21, 0.00,60.00,Monday
673,1791539.1507028893
722,902958.217469853
2,16, 1,16, 0,22, 0.00,60.00,Monday
673,1762990.4953814878
722,963701.7183989505