Program Version,EnergyPlus, Version 23.1.0-87ed9199d4, YMD=2025.03.04 10:41
1,5,Environment Title[],Latitude[deg],Longitude[deg],Time Zone[],Elevation[m]
2,8,Day of Simulation[],Month[],Day of Month[],DST Indicator[1=yes 0=no],Hour[],StartMinute[],EndMinute[],DayType
3,5,Cumulative Day of Simulation[],Month[],Day of Month[],DST Indicator[1=yes 0=no],DayType  ! When Daily Meters Requested
4,2,Cumulative Days of Simulation[],Month[]  ! When Monthly Meters Requested
5,1,Cumulative Days of Simulation[] ! When Run Period Meters Requested
6,1,Calendar Year of Simulation[] ! When Annual Meters Requested
722,1,DistrictCooling:HVAC [J] !Hourly
673,1,DistrictHeating:HVAC [J] !Hourly
9,1,Electricity:Facility [J] !Hourly
57,1,InteriorLights:Electricity [J] !Hourly
130,1,InteriorEquipment:Electricity [J] !Hourly
End of Data Dictionary
1,ARCHSIM,  31.40, 121.45,   8.00,   5.50
2,1, 1, 1, 0, 1, 0.00,60.00,Sunday
9,1332530.907142857
57,0.0
130,1332000.0
673,1396601.3002743616
722,0.0
2,1, 1, 1, 0, 2, 0.00,60.00,Sunday
9,1332530.907142857
57,0.0
130,1332000.0
673,1877770.6744646018
722,0.0
2,1, 1, 1, 0, 3, 0.00,60.00,Sunday
9,1332530.907142857
57,0.0
130,1332000.0
673,1830282.4053565296
722,0.0
2,1, 1, 1, 0, 4, 0.00,60.00,Sunday
9,1332530.907142857
57,0.0
130,1332000.0
673,2103854.5397761096
722,0.0
2,1, 1, 1, 0, 5, 0.00,60.00,Sunday
9,1332530.907142857
57,0.0
130,1332000.0
673,2358564.207870383
722,0.0
2,1, 1, 1, 0, 6, 0.00,60.00,Sunday
9,1332530.907142857
57,0.0
130,1332000.0
673,2464927.506212474
722,0.0
2,1, 1, 1, 0, 7, 0.00,60.00,Sunday
9,1332530.907142857
57,0.0
130,1332000.0
673,2650624.0769114573
722,0.0
2,1, 1, 1, 0, 8, 0.00,60.00,Sunday
9,1332530.907142857
57,0.0
130,1332000.0
673,2741732.6319958083
722,0.0
2,1, 1, 1, 0, 9, 0.00,60.00,Sunday
9,1332530.907142857
57,0.0
130,1332000.0
673,2427605.050620659
722,0.0
2,1, 1, 1, 0,10, 0.00,60.00,Sunday
9,1332530.907142857
57,0.0
130,1332000.0
673,1429175.3675326963
722,0.0
2,1, 1, 1, 0,11, 0.00,60.00,Sunday
9,1332530.907142857
57,0.0
130,1332000.0
673,886631.5551869132
722,0.0
2,1, 1, 1, 0,12, 0.00,60.00,Sunday
9,1332530.907142857
57,0.0
130,1332000.0
673,614778.0408709078
722,0.0
2,1, 1, 1, 0,13, 0.00,60.00,Sunday
9,1332530.907142857
57,0.0
130,1332000.0
673,454941.3770079863
722,0.0
2,1, 1, 1, 0,14, 0.00,60.00,Sunday
9,1332530.907142857
57,0.0
130,1332000.0
673,373558.2730381359
722,0.0
2,1, 1, 1, 0,15, 0.00,60.00,Sunday
9,1332530.907142857
57,0.0
130,1332000.0
673,367471.431745461
722,0.0
2,1, 1, 1, 0,16, 0.00,60.00,Sunday
9,1332530.907142857
57,0.0
130,1332000.0
673,412367.83371083345
722,0.0
2,1, 1, 1, 0,17, 0.00,60.00,Sunday
9,1332530.907142857
57,0.0
130,1332000.0
673,518270.61663490563
722,0.0
2,1, 1, 1, 0,18, 0.00,60.00,Sunday
9,1332530.907142857
57,0.0
130,1332000.0
673,667607.9660801954
722,0.0
2,1, 1, 1, 0,19, 0.00,60.00,Sunday
9,1332530.907142857
57,0.0
130,1332000.0
673,771504.8527151244
722,0.0
2,1, 1, 1, 0,20, 0.00,60.00,Sunday
9,1332530.907142857
57,0.0
130,1332000.0
673,842317.3894260522
722,0.0
2,1, 1, 1, 0,21, 0.00,60.00,Sunday
9,1332530.907142857
57,0.0
130,1332000.0
673,942765.7978451573
722,0.0
2,1, 1, 1, 0,22, 0.00,60.00,Sunday
9,1332530.907142857
57,0.0
130,1332000.0
673,1095816.1461257357
722,0.0
2,1, 1, 1, 0,23, 0.00,60.00,Sunday
9,1332530.907142857
57,0.0
130,1332000.0
673,1184386.214853996
722,0.0
2,1, 1, 1, 0,24, 0.00,60.00,Sunday
9,1332530.907142857
57,0.0
130,1332000.0
673,1195360.3825604834
722,0.0
2,2, 1, 2, 0, 1, 0.00,60.00,Monday
9,1332530.907142857
57,0.0
130,1332000.0
673,1199718.9163721006
722,0.0
2,2, 1, 2, 0, 2, 0.00,60.00,Monday
9,1332530.907142857
57,0.0
130,1332000.0
673,1441421.2165229123
722,0.0
2,2, 1, 2, 0, 3, 0.00,60.00,Monday
9,1332530.907142857
57,0.0
130,1332000.0
673,1693478.036406486
722,0.0
2,2, 1, 2, 0, 4, 0.00,60.00,Monday
9,1332530.907142857
57,0.0
130,1332000.0
673,1841062.8138508843
722,0.0
2,2, 1, 2, 0, 5, 0.00,60.00,Monday
9,1332530.907142857
57,0.0
130,1332000.0
673,2021392.4879526107
722,0.0
2,2, 1, 2, 0, 6, 0.00,60.00,Monday
9,1332530.907142857
57,0.0
130,1332000.0
673,2195989.6560849934
722,0.0
2,2, 1, 2, 0, 7, 0.00,60.00,Monday
9,1332530.907142857
57,0.0
130,1332000.0
673,2417218.461425143
722,0.0
2,2, 1, 2, 0, 8, 0.00,60.00,Monday
9,1332530.907142857
57,0.0
130,1332000.0
673,2623048.7134216162
722,0.0
2,2, 1, 2, 0, 9, 0.00,60.00,Monday
9,1332530.907142857
57,0.0
130,1332000.0
673,2515312.063104531
722,0.0
2,2, 1, 2, 0,10, 0.00,60.00,Monday
9,1332530.907142857
57,0.0
130,1332000.0
673,1960116.5667560638
722,0.0
2,2, 1, 2, 0,11, 0.00,60.00,Monday
9,1332530.907142857
57,0.0
130,1332000.0
673,1169835.7775901912
722,0.0
2,2, 1, 2, 0,12, 0.00,60.00,Monday
9,1332530.907142857
57,0.0
130,1332000.0
673,728661.9065906041
722,0.0
2,2, 1, 2, 0,13, 0.00,60.00,Monday
9,1332530.907142857
57,0.0
130,1332000.0
673,473024.0786727044
722,0.0
2,2, 1, 2, 0,14, 0.00,60.00,Monday
9,1332530.907142857
57,0.0
130,1332000.0
673,330756.1165692537
722,0.0
2,2, 1, 2, 0,15, 0.00,60.00,Monday
9,1332530.907142857
57,0.0
130,1332000.0
673,275769.51816577226
722,0.0
2,2, 1, 2, 0,16, 0.00,60.00,Monday
9,1332530.907142857
57,0.0
130,1332000.0
673,291635.1908979545
722,0.0
2,2, 1, 2, 0,17, 0.00,60.00,Monday
9,1332530.907142857
57,0.0
130,1332000.0
673,354700.649307344
722,0.0
2,2, 1, 2, 0,18, 0.00,60.00,Monday
9,1332530.907142857
57,0.0
130,1332000.0
673,576345.2197208742
722,0.0
2,2, 1, 2, 0,19, 0.00,60.00,Monday
9,1332530.907142857
57,0.0
130,1332000.0
673,785436.8112156233
722,0.0
2,2, 1, 2, 0,20, 0.00,60.00,Monday
9,1332530.907142857
57,0.0
130,1332000.0
673,944022.9330635981
722,0.0
2,2, 1, 2, 0,21, 0.00,60.00,Monday
9,1332530.907142857
57,0.0
130,1332000.0
673,1043430.4734034375
722,0.0
2,2, 1, 2, 0,22, 0.00,60.00,Monday
9,1332530.907142857
57,0.0
130,1332000.0
673,1376147.9602211567
722,0.0
2,2, 1, 2, 0,23, 0.00,60.00,Monday
9,1332530.907142857
57,0.0
130,1332000.0
673,1785374.8098602304
722,0.0
2,2, 1, 2, 0,24, 0.00,60.00,Monday
9,1332530.907142857
57,0.0
130,1332000.0
673,2058720.5584251266
722,0.0
2,3, 1, 3, 0, 1, 0.00,60.00,Tuesday
9,1332530.907142857
57,0.0
130,1332000.0
673,2170607.230255074
722,0.0
2,3, 1, 3, 0, 2, 0.00,60.00,Tuesday
9,1332530.907142857
57,0.0
130,1332000.0
673,2244450.210229381
722,0.0
2,3, 1, 3, 0, 3, 0.00,60.00,Tuesday
9,1332530.907142857
57,0.0
130,1332000.0
673,2246226.2057935754
722,0.0
2,3, 1, 3, 0, 4, 0.00,60.00,Tuesday
9,1332530.907142857
57,0.0
130,1332000.0
673,2224686.579915867
722,0.0
2,3, 1, 3, 0, 5, 0.00,60.00,Tuesday
9,1332530.907142857
57,0.0
130,1332000.0
673,2309190.9678413277
722,0.0
2,3, 1, 3, 0, 6, 0.00,60.00,Tuesday
9,1332530.907142857
57,0.0
130,1332000.0
673,2390146.8250070172
722,0.0
2,3, 1, 3, 0, 7, 0.00,60.00,Tuesday
9,1332530.907142857
57,0.0
130,1332000.0
673,2369055.201531741
722,0.0
2,3, 1, 3, 0, 8, 0.00,60.00,Tuesday
9,1332530.907142857
57,0.0
130,1332000.0
673,2452833.7280208054
722,0.0
2,3, 1, 3, 0, 9, 0.00,60.00,Tuesday
9,1332530.907142857
57,0.0
130,1332000.0
673,2288432.1590980953
722,0.0
2,3, 1, 3, 0,10, 0.00,60.00,Tuesday
9,1332530.907142857
57,0.0
130,1332000.0
673,1521052.639049429
722,0.0
2,3, 1, 3, 0,11, 0.00,60.00,Tuesday
9,1332530.907142857
57,0.0
130,1332000.0
673,862553.4230835696
722,0.0
2,3, 1, 3, 0,12, 0.00,60.00,Tuesday
9,1332530.907142857
57,0.0
130,1332000.0
673,484911.46439952025
722,0.0
2,3, 1, 3, 0,13, 0.00,60.00,Tuesday
9,1332530.907142857
57,0.0
130,1332000.0
673,159207.0730145971
722,0.0
2,3, 1, 3, 0,14, 0.00,60.00,Tuesday
9,1332530.907142857
57,0.0
130,1332000.0
673,90602.08886572343
722,0.0
2,3, 1, 3, 0,15, 0.00,60.00,Tuesday
9,1332530.907142857
57,0.0
130,1332000.0
673,107372.177612072
722,44784.5882284877
2,3, 1, 3, 0,16, 0.00,60.00,Tuesday
9,1332530.907142857
57,0.0
130,1332000.0
673,210396.48124549107
722,16573.45131330913
2,3, 1, 3, 0,17, 0.00,60.00,Tuesday
9,1332530.907142857
57,0.0
130,1332000.0
673,411378.22674593347
722,0.0
2,3, 1, 3, 0,18, 0.00,60.00,Tuesday
9,1332530.907142857
57,0.0
130,1332000.0
673,744855.7786297449
722,0.0
2,3, 1, 3, 0,19, 0.00,60.00,Tuesday
9,1332530.907142857
57,0.0
130,1332000.0
673,1014964.2783747369
722,0.0
2,3, 1, 3, 0,20, 0.00,60.00,Tuesday
9,1332530.907142857
57,0.0
130,1332000.0
673,1221386.7388531144
722,0.0
2,3, 1, 3, 0,21, 0.00,60.00,Tuesday
9,1332530.907142857
57,0.0
130,1332000.0
673,1492019.7018439425
722,0.0
2,3, 1, 3, 0,22, 0.00,60.00,Tuesday
9,1332530.907142857
57,0.0
130,1332000.0
673,1740891.98222354
722,0.0
2,3, 1, 3, 0,23, 0.00,60.00,Tuesday
9,1332530.907142857
57,0.0
130,1332000.0
673,1869326.6810515106
722,0.0
2,3, 1, 3, 0,24, 0.00,60.00,Tuesday
9,1332530.907142857
57,0.0
130,1332000.0
673,1981806.321434267
722,0.0
2,4, 1, 4, 0, 1, 0.00,60.00,Wednesday
9,1332530.907142857
57,0.0
130,1332000.0
673,2095583.0892718625
722,0.0
2,4, 1, 4, 0, 2, 0.00,60.00,Wednesday
9,1332530.907142857
57,0.0
130,1332000.0
673,2085355.8377053854
722,0.0
2,4, 1, 4, 0, 3, 0.00,60.00,Wednesday
9,1332530.907142857
57,0.0
130,1332000.0
673,1972794.963099702
722,0.0
2,4, 1, 4, 0, 4, 0.00,60.00,Wednesday
9,1332530.907142857
57,0.0
130,1332000.0
673,1974808.6423732596
722,0.0
2,4, 1, 4, 0, 5, 0.00,60.00,Wednesday
9,1332530.907142857
57,0.0
130,1332000.0
673,1916235.3567785535
722,0.0
2,4, 1, 4, 0, 6, 0.00,60.00,Wednesday
9,1332530.907142857
57,0.0
130,1332000.0
673,1826591.8489357373
722,0.0
2,4, 1, 4, 0, 7, 0.00,60.00,Wednesday
9,1332530.907142857
57,0.0
130,1332000.0
673,1787698.9785225813
722,0.0
2,4, 1, 4, 0, 8, 0.00,60.00,Wednesday
9,1332530.907142857
57,0.0
130,1332000.0
673,1740986.8934345641
722,0.0
2,4, 1, 4, 0, 9, 0.00,60.00,Wednesday
9,1332530.907142857
57,0.0
130,1332000.0
673,1586745.7072493858
722,0.0
2,4, 1, 4, 0,10, 0.00,60.00,Wednesday
9,1332530.907142857
57,0.0
130,1332000.0
673,1125296.4443740493
722,0.0
2,4, 1, 4, 0,11, 0.00,60.00,Wednesday
9,1332530.907142857
57,0.0
130,1332000.0
673,783834.0775694699
722,0.0
2,4, 1, 4, 0,12, 0.00,60.00,Wednesday
9,1332530.907142857
57,0.0
130,1332000.0
673,560052.1076793947
722,0.0
2,4, 1, 4, 0,13, 0.00,60.00,Wednesday
9,1332530.907142857
57,0.0
130,1332000.0
673,358636.68689572276
722,0.0
2,4, 1, 4, 0,14, 0.00,60.00,Wednesday
9,1332530.907142857
57,0.0
130,1332000.0
673,207344.900115515
722,0.0
2,4, 1, 4, 0,15, 0.00,60.00,Wednesday
9,1332530.907142857
57,0.0
130,1332000.0
673,185928.15894975315
722,0.0
2,4, 1, 4, 0,16, 0.00,60.00,Wednesday
9,1332530.907142857
57,0.0
130,1332000.0
673,241637.18565398583
722,0.0
2,4, 1, 4, 0,17, 0.00,60.00,Wednesday
9,1332530.907142857
57,0.0
130,1332000.0
673,315877.2020296998
722,0.0
2,4, 1, 4, 0,18, 0.00,60.00,Wednesday
9,1332530.907142857
57,0.0
130,1332000.0
673,451708.0093727682
722,0.0
2,4, 1, 4, 0,19, 0.00,60.00,Wednesday
9,1332530.907142857
57,0.0
130,1332000.0
673,570036.3333338858
722,0.0
2,4, 1, 4, 0,20, 0.00,60.00,Wednesday
9,1332530.907142857
57,0.0
130,1332000.0
673,660020.7755310009
722,0.0
2,4, 1, 4, 0,21, 0.00,60.00,Wednesday
9,1332530.907142857
57,0.0
130,1332000.0
673,682866.2601343468
722,0.0
2,4, 1, 4, 0,22, 0.00,60.00,Wednesday
9,1332530.907142857
57,0.0
130,1332000.0
673,700237.7192621022
722,0.0
2,4, 1, 4, 0,23, 0.00,60.00,Wednesday
9,1332530.907142857
57,0.0
130,1332000.0
673,680166.7030222215
722,0.0
2,4, 1, 4, 0,24, 0.00,60.00,Wednesday
9,1332530.907142857
57,0.0
130,1332000.0
673,674292.8973953415
722,0.0
2,5, 1, 5, 0, 1, 0.00,60.00,Thursday
9,1332530.907142857
57,0.0
130,1332000.0
673,678669.3879686298
722,0.0
2,5, 1, 5, 0, 2, 0.00,60.00,Thursday
9,1332530.907142857
57,0.0
130,1332000.0
673,703505.634182862
722,0.0
2,5, 1, 5, 0, 3, 0.00,60.00,Thursday
9,1332530.907142857
57,0.0
130,1332000.0
673,715437.0384220434
722,0.0
2,5, 1, 5, 0, 4, 0.00,60.00,Thursday
9,1332530.907142857
57,0.0
130,1332000.0
673,758968.9870462464
722,0.0
2,5, 1, 5, 0, 5, 0.00,60.00,Thursday
9,1332530.907142857
57,0.0
130,1332000.0
673,827585.5022359475
722,0.0
2,5, 1, 5, 0, 6, 0.00,60.00,Thursday
9,1332530.907142857
57,0.0
130,1332000.0
673,846905.787853061
722,0.0
2,5, 1, 5, 0, 7, 0.00,60.00,Thursday
9,1332530.907142857
57,0.0
130,1332000.0
673,800227.2874486339
722,0.0
2,5, 1, 5, 0, 8, 0.00,60.00,Thursday
9,1332530.907142857
57,0.0
130,1332000.0
673,753273.3000572085
722,0.0
2,5, 1, 5, 0, 9, 0.00,60.00,Thursday
9,1332530.907142857
57,0.0
130,1332000.0
673,773042.6703007994
722,0.0
2,5, 1, 5, 0,10, 0.00,60.00,Thursday
9,1332530.907142857
57,0.0
130,1332000.0
673,784141.248100196
722,0.0
2,5, 1, 5, 0,11, 0.00,60.00,Thursday
9,1332530.907142857
57,0.0
130,1332000.0
673,786179.4408670806
722,0.0
2,5, 1, 5, 0,12, 0.00,60.00,Thursday
9,1332530.907142857
57,0.0
130,1332000.0
673,813258.6583257635
722,0.0
2,5, 1, 5, 0,13, 0.00,60.00,Thursday
9,1332530.907142857
57,0.0
130,1332000.0
673,820413.4688916537
722,0.0
2,5, 1, 5, 0,14, 0.00,60.00,Thursday
9,1332530.907142857
57,0.0
130,1332000.0
673,831701.9682145112
722,0.0
2,5, 1, 5, 0,15, 0.00,60.00,Thursday
9,1332530.907142857
57,0.0
130,1332000.0
673,835392.1755712709
722,0.0
2,5, 1, 5, 0,16, 0.00,60.00,Thursday
9,1332530.907142857
57,0.0
130,1332000.0
673,839487.6784193246
722,0.0
2,5, 1, 5, 0,17, 0.00,60.00,Thursday
9,1332530.907142857
57,0.0
130,1332000.0
673,864803.1713117936
722,0.0
2,5, 1, 5, 0,18, 0.00,60.00,Thursday
9,1332530.907142857
57,0.0
130,1332000.0
673,900193.5354604437
722,0.0
2,5, 1, 5, 0,19, 0.00,60.00,Thursday
9,1332530.907142857
57,0.0
130,1332000.0
673,908204.3806512293
722,0.0
2,5, 1, 5, 0,20, 0.00,60.00,Thursday
9,1332530.907142857
57,0.0
130,1332000.0
673,927933.6203306456
722,0.0
2,5, 1, 5, 0,21, 0.00,60.00,Thursday
9,1332530.907142857
57,0.0
130,1332000.0
673,944626.368274546
722,0.0
2,5, 1, 5, 0,22, 0.00,60.00,Thursday
9,1332530.907142857
57,0.0
130,1332000.0
673,932011.5134594204
722,0.0
2,5, 1, 5, 0,23, 0.00,60.00,Thursday
9,1332530.907142857
57,0.0
130,1332000.0
673,902173.9495171802
722,0.0
2,5, 1, 5, 0,24, 0.00,60.00,Thursday
9,1332530.907142857
57,0.0
130,1332000.0
673,904103.2241867211
722,0.0
2,6, 1, 6, 0, 1, 0.00,60.00,Friday
9,1332530.907142857
57,0.0
130,1332000.0
673,948155.8713703804
722,0.0
2,6, 1, 6, 0, 2, 0.00,60.00,Friday
9,1332530.907142857
57,0.0
130,1332000.0
673,1016312.7974427936
722,0.0
2,6, 1, 6, 0, 3, 0.00,60.00,Friday
9,1332530.907142857
57,0.0
130,1332000.0
673,1065543.6548784154
722,0.0
2,6, 1, 6, 0, 4, 0.00,60.00,Friday
9,1332530.907142857
57,0.0
130,1332000.0
673,1152840.589352704
722,0.0
2,6, 1, 6, 0, 5, 0.00,60.00,Friday
9,1332530.907142857
57,0.0
130,1332000.0
673,1198605.7264573555
722,0.0
2,6, 1, 6, 0, 6, 0.00,60.00,Friday
9,1332530.907142857
57,0.0
130,1332000.0
673,1201002.137806991
722,0.0
2,6, 1, 6, 0, 7, 0.00,60.00,Friday
9,1332530.907142857
57,0.0
130,1332000.0
673,1164567.2477057152
722,0.0
2,6, 1, 6, 0, 8, 0.00,60.00,Friday
9,1332530.907142857
57,0.0
130,1332000.0
673,1158318.2378527534
722,0.0
2,6, 1, 6, 0, 9, 0.00,60.00,Friday
9,1332530.907142857
57,0.0
130,1332000.0
673,1047112.296106112
722,0.0
2,6, 1, 6, 0,10, 0.00,60.00,Friday
9,1332530.907142857
57,0.0
130,1332000.0
673,944424.3795691117
722,0.0
2,6, 1, 6, 0,11, 0.00,60.00,Friday
9,1332530.907142857
57,0.0
130,1332000.0
673,860250.876346569
722,0.0
2,6, 1, 6, 0,12, 0.00,60.00,Friday
9,1332530.907142857
57,0.0
130,1332000.0
673,749734.3841277687
722,0.0
2,6, 1, 6, 0,13, 0.00,60.00,Friday
9,1332530.907142857
57,0.0
130,1332000.0
673,676474.7267757881
722,0.0
2,6, 1, 6, 0,14, 0.00,60.00,Friday
9,1332530.907142857
57,0.0
130,1332000.0
673,608935.7164485418
722,0.0
2,6, 1, 6, 0,15, 0.00,60.00,Friday
9,1332530.907142857
57,0.0
130,1332000.0
673,545766.8989128922
722,0.0
2,6, 1, 6, 0,16, 0.00,60.00,Friday
9,1332530.907142857
57,0.0
130,1332000.0
673,561202.3856513045
722,0.0
2,6, 1, 6, 0,17, 0.00,60.00,Friday
9,1332530.907142857
57,0.0
130,1332000.0
673,609413.5371352214
722,0.0
2,6, 1, 6, 0,18, 0.00,60.00,Friday
9,1332530.907142857
57,0.0
130,1332000.0
673,791765.8864788371
722,0.0
2,6, 1, 6, 0,19, 0.00,60.00,Friday
9,1332530.907142857
57,0.0
130,1332000.0
673,962316.2706630578
722,0.0
2,6, 1, 6, 0,20, 0.00,60.00,Friday
9,1332530.907142857
57,0.0
130,1332000.0
673,1076405.948292407
722,0.0
2,6, 1, 6, 0,21, 0.00,60.00,Friday
9,1332530.907142857
57,0.0
130,1332000.0
673,1198558.8251844312
722,0.0
2,6, 1, 6, 0,22, 0.00,60.00,Friday
9,1332530.907142857
57,0.0
130,1332000.0
673,1231498.84046542
722,0.0
2,6, 1, 6, 0,23, 0.00,60.00,Friday
9,1332530.907142857
57,0.0
130,1332000.0
673,1355216.0209543542
722,0.0
2,6, 1, 6, 0,24, 0.00,60.00,Friday
9,1332530.907142857
57,0.0
130,1332000.0
673,1448048.7959844135
722,0.0
2,7, 1, 7, 0, 1, 0.00,60.00,Saturday
9,1332530.907142857
57,0.0
130,1332000.0
673,1391518.9359329478
722,0.0
2,7, 1, 7, 0, 2, 0.00,60.00,Saturday
9,1332530.907142857
57,0.0
130,1332000.0
673,1488498.464318847
722,0.0
2,7, 1, 7, 0, 3, 0.00,60.00,Saturday
9,1332530.907142857
57,0.0
130,1332000.0
673,1651880.0943561685
722,0.0
2,7, 1, 7, 0, 4, 0.00,60.00,Saturday
9,1332530.907142857
57,0.0
130,1332000.0
673,1695362.7745247262
722,0.0
2,7, 1, 7, 0, 5, 0.00,60.00,Saturday
9,1332530.907142857
57,0.0
130,1332000.0
673,1587498.2179180805
722,0.0
2,7, 1, 7, 0, 6, 0.00,60.00,Saturday
9,1332530.907142857
57,0.0
130,1332000.0
673,1574986.3728151731
722,0.0
2,7, 1, 7, 0, 7, 0.00,60.00,Saturday
9,1332530.907142857
57,0.0
130,1332000.0
673,1693038.2153969863
722,0.0
2,7, 1, 7, 0, 8, 0.00,60.00,Saturday
9,1332530.907142857
57,0.0
130,1332000.0
673,1593926.6488475273
722,0.0
2,7, 1, 7, 0, 9, 0.00,60.00,Saturday
9,1332530.907142857
57,0.0
130,1332000.0
673,1481005.4565006127
722,0.0
2,7, 1, 7, 0,10, 0.00,60.00,Saturday
9,1332530.907142857
57,0.0
130,1332000.0
673,1309270.9888941091
722,0.0
2,7, 1, 7, 0,11, 0.00,60.00,Saturday
9,1332530.907142857
57,0.0
130,1332000.0
673,945689.9092635278
722,0.0
2,7, 1, 7, 0,12, 0.00,60.00,Saturday
9,1332530.907142857
57,0.0
130,1332000.0
673,723848.0680360601
722,0.0
2,7, 1, 7, 0,13, 0.00,60.00,Saturday
9,1332530.907142857
57,0.0
130,1332000.0
673,553899.7341415732
722,0.0
2,7, 1, 7, 0,14, 0.00,60.00,Saturday
9,1332530.907142857
57,0.0
130,1332000.0
673,440861.82689916843
722,0.0
2,7, 1, 7, 0,15, 0.00,60.00,Saturday
9,1332530.907142857
57,0.0
130,1332000.0
673,342366.92127764825
722,0.0
2,7, 1, 7, 0,16, 0.00,60.00,Saturday
9,1332530.907142857
57,0.0
130,1332000.0
673,404368.4366251511
722,0.0
2,7, 1, 7, 0,17, 0.00,60.00,Saturday
9,1332530.907142857
57,0.0
130,1332000.0
673,528617.4576380686
722,0.0
2,7, 1, 7, 0,18, 0.00,60.00,Saturday
9,1332530.907142857
57,0.0
130,1332000.0
673,683778.1721103023
722,0.0
2,7, 1, 7, 0,19, 0.00,60.00,Saturday
9,1332530.907142857
57,0.0
130,1332000.0
673,870149.8344403761
722,0.0
2,7, 1, 7, 0,20, 0.00,60.00,Saturday
9,1332530.907142857
57,0.0
130,1332000.0
673,987030.0768524995
722,0.0
2,7, 1, 7, 0,21, 0.00,60.00,Saturday
9,1332530.907142857
57,0.0
130,1332000.0
673,1058960.5962528775
722,0.0
2,7, 1, 7, 0,22, 0.00,60.00,Saturday
9,1332530.907142857
57,0.0
130,1332000.0
673,1079884.9864125636
722,0.0
2,7, 1, 7, 0,23, 0.00,60.00,Saturday
9,1332530.907142857
57,0.0
130,1332000.0
673,1133863.384758213
722,0.0
2,7, 1, 7, 0,24, 0.00,60.00,Saturday
9,1332530.907142857
57,0.0
130,1332000.0
673,1267432.541000955
722,0.0
2,8, 1, 8, 0, 1, 0.00,60.00,Sunday
9,1332530.907142857
57,0.0
130,1332000.0
673,1405429.1264269403
722,0.0
2,8, 1, 8, 0, 2, 0.00,60.00,Sunday
9,1332530.907142857
57,0.0
130,1332000.0
673,1500810.6478375427
722,0.0
2,8, 1, 8, 0, 3, 0.00,60.00,Sunday
9,1332530.907142857
57,0.0
130,1332000.0
673,1683200.5917988303
722,0.0
2,8, 1, 8, 0, 4, 0.00,60.00,Sunday
9,1332530.907142857
57,0.0
130,1332000.0
673,1814115.6412183242
722,0.0
2,8, 1, 8, 0, 5, 0.00,60.00,Sunday
9,1332530.907142857
57,0.0
130,1332000.0
673,2147269.3313464383
722,0.0
2,8, 1, 8, 0, 6, 0.00,60.00,Sunday
9,1332530.907142857
57,0.0
130,1332000.0
673,2338039.833491318
722,0.0
2,8, 1, 8, 0, 7, 0.00,60.00,Sunday
9,1332530.907142857
57,0.0
130,1332000.0
673,2506046.593703345
722,0.0
2,8, 1, 8, 0, 8, 0.00,60.00,Sunday
9,1332530.907142857
57,0.0
130,1332000.0
673,2540538.222083835
722,0.0
2,8, 1, 8, 0, 9, 0.00,60.00,Sunday
9,1332530.907142857
57,0.0
130,1332000.0
673,2331632.3020886183
722,0.0
2,8, 1, 8, 0,10, 0.00,60.00,Sunday
9,1332530.907142857
57,0.0
130,1332000.0
673,1703855.3520911674
722,0.0
2,8, 1, 8, 0,11, 0.00,60.00,Sunday
9,1332530.907142857
57,0.0
130,1332000.0
673,1038878.3200021831
722,0.0
2,8, 1, 8, 0,12, 0.00,60.00,Sunday
9,1332530.907142857
57,0.0
130,1332000.0
673,828924.7453790645
722,0.0
2,8, 1, 8, 0,13, 0.00,60.00,Sunday
9,1332530.907142857
57,0.0
130,1332000.0
673,702246.5349306861
722,0.0
2,8, 1, 8, 0,14, 0.00,60.00,Sunday
9,1332530.907142857
57,0.0
130,1332000.0
673,628372.4473803047
722,0.0
2,8, 1, 8, 0,15, 0.00,60.00,Sunday
9,1332530.907142857
57,0.0
130,1332000.0
673,588249.861622102
722,0.0
2,8, 1, 8, 0,16, 0.00,60.00,Sunday
9,1332530.907142857
57,0.0
130,1332000.0
673,652043.9674434642
722,0.0
2,8, 1, 8, 0,17, 0.00,60.00,Sunday
9,1332530.907142857
57,0.0
130,1332000.0
673,747892.3733335707
722,0.0
2,8, 1, 8, 0,18, 0.00,60.00,Sunday
9,1332530.907142857
57,0.0
130,1332000.0
673,944601.3218052998
722,0.0
2,8, 1, 8, 0,19, 0.00,60.00,Sunday
9,1332530.907142857
57,0.0
130,1332000.0
673,1161091.5994388878
722,0.0
2,8, 1, 8, 0,20, 0.00,60.00,Sunday
9,1332530.907142857
57,0.0
130,1332000.0
673,1566677.513769105
722,0.0
2,8, 1, 8, 0,21, 0.00,60.00,Sunday
9,1332530.907142857
57,0.0
130,1332000.0
673,1900947.3452752389
722,0.0
2,8, 1, 8, 0,22, 0.00,60.00,Sunday
9,1332530.907142857
57,0.0
130,1332000.0
673,1977411.4195909202
722,0.0
2,8, 1, 8, 0,23, 0.00,60.00,Sunday
9,1332530.907142857
57,0.0
130,1332000.0
673,2009835.443423607
722,0.0
2,8, 1, 8, 0,24, 0.00,60.00,Sunday
9,1332530.907142857
57,0.0
130,1332000.0
673,2259219.8921466884
722,0.0
2,9, 1, 9, 0, 1, 0.00,60.00,Monday
9,1332530.907142857
57,0.0
130,1332000.0
673,2346557.6335511906
722,0.0
2,9, 1, 9, 0, 2, 0.00,60.00,Monday
9,1332530.907142857
57,0.0
130,1332000.0
673,2303395.637363101
722,0.0
2,9, 1, 9, 0, 3, 0.00,60.00,Monday
9,1332530.907142857
57,0.0
130,1332000.0
673,2201241.0936820135
722,0.0
2,9, 1, 9, 0, 4, 0.00,60.00,Monday
9,1332530.907142857
57,0.0
130,1332000.0
673,2159832.6489864937
722,0.0
2,9, 1, 9, 0, 5, 0.00,60.00,Monday
9,1332530.907142857
57,0.0
130,1332000.0
673,2202296.901602969
722,0.0
2,9, 1, 9, 0, 6, 0.00,60.00,Monday
9,1332530.907142857
57,0.0
130,1332000.0
673,2350125.4764121016
722,0.0
2,9, 1, 9, 0, 7, 0.00,60.00,Monday
9,1332530.907142857
57,0.0
130,1332000.0
673,2299453.3349823784
722,0.0
2,9, 1, 9, 0, 8, 0.00,60.00,Monday
9,1332530.907142857
57,0.0
130,1332000.0
673,2216255.2653308376
722,0.0
2,9, 1, 9, 0, 9, 0.00,60.00,Monday
9,1332530.907142857
57,0.0
130,1332000.0
673,2178086.698140259
722,0.0
2,9, 1, 9, 0,10, 0.00,60.00,Monday
9,1332530.907142857
57,0.0
130,1332000.0
673,1988046.4075561203
722,0.0
2,9, 1, 9, 0,11, 0.00,60.00,Monday
9,1332530.907142857
57,0.0
130,1332000.0
673,1678693.7247151358
722,0.0
2,9, 1, 9, 0,12, 0.00,60.00,Monday
9,1332530.907142857
57,0.0
130,1332000.0
673,1427774.5610502588
722,0.0
2,9, 1, 9, 0,13, 0.00,60.00,Monday
9,1332530.907142857
57,0.0
130,1332000.0
673,1345445.3239151826
722,0.0
2,9, 1, 9, 0,14, 0.00,60.00,Monday
9,1332530.907142857
57,0.0
130,1332000.0
673,1149041.5912048365
722,0.0
2,9, 1, 9, 0,15, 0.00,60.00,Monday
9,1332530.907142857
57,0.0
130,1332000.0
673,1025158.5748423263
722,0.0
2,9, 1, 9, 0,16, 0.00,60.00,Monday
9,1332530.907142857
57,0.0
130,1332000.0
673,950226.540072887
722,0.0
2,9, 1, 9, 0,17, 0.00,60.00,Monday
9,1332530.907142857
57,0.0
130,1332000.0
673,926299.7870411595
722,0.0
2,9, 1, 9, 0,18, 0.00,60.00,Monday
9,1332530.907142857
57,0.0
130,1332000.0
673,1108666.803460355
722,0.0
2,9, 1, 9, 0,19, 0.00,60.00,Monday
9,1332530.907142857
57,0.0
130,1332000.0
673,1443668.5389444754
722,0.0
2,9, 1, 9, 0,20, 0.00,60.00,Monday
9,1332530.907142857
57,0.0
130,1332000.0
673,1829690.9387458672
722,0.0
2,9, 1, 9, 0,21, 0.00,60.00,Monday
9,1332530.907142857
57,0.0
130,1332000.0
673,2117229.5977091505
722,0.0
2,9, 1, 9, 0,22, 0.00,60.00,Monday
9,1332530.907142857
57,0.0
130,1332000.0
673,2429520.0410956633
722,0.0
2,9, 1, 9, 0,23, 0.00,60.00,Monday
9,1332530.907142857
57,0.0
130,1332000.0
673,2591487.3879977185
722,0.0
2,9, 1, 9, 0,24, 0.00,60.00,Monday
9,1332530.907142857
57,0.0
130,1332000.0
673,2657713.4579824517
722,0.0
2,10, 1,10, 0, 1, 0.00,60.00,Tuesday
9,1332530.907142857
57,0.0
130,1332000.0
673,2733388.0102303084
722,0.0
2,10, 1,10, 0, 2, 0.00,60.00,Tuesday
9,1332530.907142857
57,0.0
130,1332000.0
673,2800823.0221187817
722,0.0
2,10, 1,10, 0, 3, 0.00,60.00,Tuesday
9,1332530.907142857
57,0.0
130,1332000.0
673,2796665.9329040493
722,0.0
2,10, 1,10, 0, 4, 0.00,60.00,Tuesday
9,1332530.907142857
57,0.0
130,1332000.0
673,2860914.632011255
722,0.0
2,10, 1,10, 0, 5, 0.00,60.00,Tuesday
9,1332530.907142857
57,0.0
130,1332000.0
673,3066081.8780254805
722,0.0
2,10, 1,10, 0, 6, 0.00,60.00,Tuesday
9,1332530.907142857
57,0.0
130,1332000.0
673,3101137.326657412
722,0.0
2,10, 1,10, 0, 7, 0.00,60.00,Tuesday
9,1332530.907142857
57,0.0
130,1332000.0
673,3129376.6860915464
722,0.0
2,10, 1,10, 0, 8, 0.00,60.00,Tuesday
9,1332530.907142857
57,0.0
130,1332000.0
673,3219970.7995653762
722,0.0
2,10, 1,10, 0, 9, 0.00,60.00,Tuesday
9,1332530.907142857
57,0.0
130,1332000.0
673,2968184.4201258915
722,0.0
2,10, 1,10, 0,10, 0.00,60.00,Tuesday
9,1332530.907142857
57,0.0
130,1332000.0
673,2386808.3294679266
722,0.0
2,10, 1,10, 0,11, 0.00,60.00,Tuesday
9,1332530.907142857
57,0.0
130,1332000.0
673,1571677.0858809613
722,0.0
2,10, 1,10, 0,12, 0.00,60.00,Tuesday
9,1332530.907142857
57,0.0
130,1332000.0
673,935075.9117139922
722,0.0
2,10, 1,10, 0,13, 0.00,60.00,Tuesday
9,1332530.907142857
57,0.0
130,1332000.0
673,788482.783209086
722,0.0
2,10, 1,10, 0,14, 0.00,60.00,Tuesday
9,1332530.907142857
57,0.0
130,1332000.0
673,810162.6550657458
722,0.0
2,10, 1,10, 0,15, 0.00,60.00,Tuesday
9,1332530.907142857
57,0.0
130,1332000.0
673,843887.7531403523
722,0.0
2,10, 1,10, 0,16, 0.00,60.00,Tuesday
9,1332530.907142857
57,0.0
130,1332000.0
673,856293.1925592447
722,0.0
2,10, 1,10, 0,17, 0.00,60.00,Tuesday
9,1332530.907142857
57,0.0
130,1332000.0
673,939975.1681313848
722,0.0
2,10, 1,10, 0,18, 0.00,60.00,Tuesday
9,1332530.907142857
57,0.0
130,1332000.0
673,1025358.3636404322
722,0.0
2,10, 1,10, 0,19, 0.00,60.00,Tuesday
9,1332530.907142857
57,0.0
130,1332000.0
673,1149135.2194545951
722,0.0
2,10, 1,10, 0,20, 0.00,60.00,Tuesday
9,1332530.907142857
57,0.0
130,1332000.0
673,1426460.3913495797
722,0.0
2,10, 1,10, 0,21, 0.00,60.00,Tuesday
9,1332530.907142857
57,0.0
130,1332000.0
673,1536795.1707038274
722,0.0
2,10, 1,10, 0,22, 0.00,60.00,Tuesday
9,1332530.907142857
57,0.0
130,1332000.0
673,1585003.6828533597
722,0.0
2,10, 1,10, 0,23, 0.00,60.00,Tuesday
9,1332530.907142857
57,0.0
130,1332000.0
673,1626505.098321054
722,0.0
2,10, 1,10, 0,24, 0.00,60.00,Tuesday
9,1332530.907142857
57,0.0
130,1332000.0
673,1726604.1573773657
722,0.0
2,11, 1,11, 0, 1, 0.00,60.00,Wednesday
9,1332530.907142857
57,0.0
130,1332000.0
673,1785443.1569818151
722,0.0
2,11, 1,11, 0, 2, 0.00,60.00,Wednesday
9,1332530.907142857
57,0.0
130,1332000.0
673,1813569.4749094187
722,0.0
2,11, 1,11, 0, 3, 0.00,60.00,Wednesday
9,1332530.907142857
57,0.0
130,1332000.0
673,1969441.6930809137
722,0.0
2,11, 1,11, 0, 4, 0.00,60.00,Wednesday
9,1332530.907142857
57,0.0
130,1332000.0
673,2067880.455038175
722,0.0
2,11, 1,11, 0, 5, 0.00,60.00,Wednesday
9,1332530.907142857
57,0.0
130,1332000.0
673,2048566.9202827692
722,0.0
2,11, 1,11, 0, 6, 0.00,60.00,Wednesday
9,1332530.907142857
57,0.0
130,1332000.0
673,2138552.1088122283
722,0.0
2,11, 1,11, 0, 7, 0.00,60.00,Wednesday
9,1332530.907142857
57,0.0
130,1332000.0
673,2239325.8816974876
722,0.0
2,11, 1,11, 0, 8, 0.00,60.00,Wednesday
9,1332530.907142857
57,0.0
130,1332000.0
673,2383282.119427101
722,0.0
2,11, 1,11, 0, 9, 0.00,60.00,Wednesday
9,1332530.907142857
57,0.0
130,1332000.0
673,2437508.499884452
722,0.0
2,11, 1,11, 0,10, 0.00,60.00,Wednesday
9,1332530.907142857
57,0.0
130,1332000.0
673,2130436.0175653794
722,0.0
2,11, 1,11, 0,11, 0.00,60.00,Wednesday
9,1332530.907142857
57,0.0
130,1332000.0
673,1623884.5751973435
722,0.0
2,11, 1,11, 0,12, 0.00,60.00,Wednesday
9,1332530.907142857
57,0.0
130,1332000.0
673,1181559.0268193977
722,0.0
2,11, 1,11, 0,13, 0.00,60.00,Wednesday
9,1332530.907142857
57,0.0
130,1332000.0
673,984374.9007643581
722,0.0
2,11, 1,11, 0,14, 0.00,60.00,Wednesday
9,1332530.907142857
57,0.0
130,1332000.0
673,941355.7059791281
722,0.0
2,11, 1,11, 0,15, 0.00,60.00,Wednesday
9,1332530.907142857
57,0.0
130,1332000.0
673,930808.3822980868
722,0.0
2,11, 1,11, 0,16, 0.00,60.00,Wednesday
9,1332530.907142857
57,0.0
130,1332000.0
673,963998.4669062397
722,0.0
2,11, 1,11, 0,17, 0.00,60.00,Wednesday
9,1332530.907142857
57,0.0
130,1332000.0
673,1071844.022815802
722,0.0
2,11, 1,11, 0,18, 0.00,60.00,Wednesday
9,1332530.907142857
57,0.0
130,1332000.0
673,1472077.6549638903
722,0.0
2,11, 1,11, 0,19, 0.00,60.00,Wednesday
9,1332530.907142857
57,0.0
130,1332000.0
673,1984768.2019510954
722,0.0
2,11, 1,11, 0,20, 0.00,60.00,Wednesday
9,1332530.907142857
57,0.0
130,1332000.0
673,2173621.3356296974
722,0.0
2,11, 1,11, 0,21, 0.00,60.00,Wednesday
9,1332530.907142857
57,0.0
130,1332000.0
673,2438065.0318412906
722,0.0
2,11, 1,11, 0,22, 0.00,60.00,Wednesday
9,1332530.907142857
57,0.0
130,1332000.0
673,2729358.592711793
722,0.0
2,11, 1,11, 0,23, 0.00,60.00,Wednesday
9,1332530.907142857
57,0.0
130,1332000.0
673,2836316.225842832
722,0.0
2,11, 1,11, 0,24, 0.00,60.00,Wednesday
9,1332530.907142857
57,0.0
130,1332000.0
673,2846875.3749858094
722,0.0
2,12, 1,12, 0, 1, 0.00,60.00,Thursday
9,1332530.907142857
57,0.0
130,1332000.0
673,2841510.4322869205
722,0.0
2,12, 1,12, 0, 2, 0.00,60.00,Thursday
9,1332530.907142857
57,0.0
130,1332000.0
673,2807489.330570077
722,0.0
2,12, 1,12, 0, 3, 0.00,60.00,Thursday
9,1332530.907142857
57,0.0
130,1332000.0
673,2899558.1797487405
722,0.0
2,12, 1,12, 0, 4, 0.00,60.00,Thursday
9,1332530.907142857
57,0.0
130,1332000.0
673,2963471.376051748
722,0.0
2,12, 1,12, 0, 5, 0.00,60.00,Thursday
9,1332530.907142857
57,0.0
130,1332000.0
673,2959901.9996648873
722,0.0
2,12, 1,12, 0, 6, 0.00,60.00,Thursday
9,1332530.907142857
57,0.0
130,1332000.0
673,3005885.805365126
722,0.0